         Total DFT energy =     -188.657860800862
@ Step       Energy      Delta E   Gmax     Grms     Xrms     Xmax   Walltime
@ ---- ---------------- -------- -------- -------- -------- -------- --------
@    0    -188.65786080  0.0D+00  0.06892  0.03249  0.00000  0.00000      8.5
         Total DFT energy =     -188.661151055608
         Total DFT energy =     -188.662792778785
@    1    -188.66279278 -4.9D-03  0.00038  0.00018  0.03217  0.06825     13.0
         Total DFT energy =     -188.662792894063
         Total DFT energy =   -188.662792894063
@    2    -188.66279289 -1.2D-07  0.00004  0.00002  0.00018  0.00038     14.6
         Total DFT energy =     -188.662792904933

                    DFT Final Alpha Molecular Orbital Analysis
                    ------------------------------------------

 Vector    1  Occ=1.000000D+00  E=-1.921463D+01  Symmetry=a2u

 Vector   26  Occ=0.000000D+00  E= 7.130356D-01  Symmetry=eu

 Vector   27  Occ=0.000000D+00  E= 9.275436D-01  Symmetry=a1g

 Vector   28  Occ=0.000000D+00  E= 9.388160D-01  Symmetry=a2u

 Vector   29  Occ=0.000000D+00  E= 9.743505D-01  Symmetry=eg

 Vector   30  Occ=0.000000D+00  E= 9.743505D-01  Symmetry=eg

 Vector   31  Occ=0.000000D+00  E= 9.752201D-01  Symmetry=a2u

 Vector   32  Occ=0.000000D+00  E= 1.087271D+00  Symmetry=a1g

 Vector   33  Occ=0.000000D+00  E= 1.376733D+00  Symmetry=b1u

 Vector   34  Occ=0.000000D+00  E= 1.376733D+00  Symmetry=b2u

 Vector   35  Occ=0.000000D+00  E= 1.527009D+00  Symmetry=eu

 Vector   36  Occ=0.000000D+00  E= 1.527009D+00  Symmetry=eu

 Vector   37  Occ=0.000000D+00  E= 1.649667D+00  Symmetry=b1g

 Vector   38  Occ=0.000000D+00  E= 1.649667D+00  Symmetry=b2g

 Vector   39  Occ=0.000000D+00  E= 1.861942D+00  Symmetry=a2u

 Vector   40  Occ=0.000000D+00  E= 1.930954D+00  Symmetry=eu

 Vector   41  Occ=0.000000D+00  E= 1.930954D+00  Symmetry=eu

 Vector   42  Occ=0.000000D+00  E= 2.107824D+00  Symmetry=eg

 Vector   43  Occ=0.000000D+00  E= 2.107824D+00  Symmetry=eg

 Vector   44  Occ=0.000000D+00  E= 2.135876D+00  Symmetry=a1g

 Vector   45  Occ=0.000000D+00  E= 2.431672D+00  Symmetry=a2u

 Vector   46  Occ=0.000000D+00  E= 2.492967D+00  Symmetry=a1g

 Vector   47  Occ=0.000000D+00  E= 2.572652D+00  Symmetry=eu

 Vector   48  Occ=0.000000D+00  E= 2.572652D+00  Symmetry=eu

 Vector   49  Occ=0.000000D+00  E= 2.580342D+00  Symmetry=a1g

 Vector   50  Occ=0.000000D+00  E= 2.712075D+00  Symmetry=a2u

 Vector   51  Occ=0.000000D+00  E= 2.820608D+00  Symmetry=b1g

 Vector   52  Occ=0.000000D+00  E= 2.820608D+00  Symmetry=b2g

 Vector   53  Occ=0.000000D+00  E= 2.876764D+00  Symmetry=eg

 Vector   54  Occ=0.000000D+00  E= 2.876764D+00  Symmetry=eg

 Vector   55  Occ=0.000000D+00  E= 2.900998D+00  Symmetry=b2u

 Vector   56  Occ=0.000000D+00  E= 2.900998D+00  Symmetry=b1u

 Vector   57  Occ=0.000000D+00  E= 3.081566D+00  Symmetry=eu

 Vector   58  Occ=0.000000D+00  E= 3.081566D+00  Symmetry=eu

 Vector   59  Occ=0.000000D+00  E= 3.463384D+00  Symmetry=eu

 Vector   60  Occ=0.000000D+00  E= 3.463384D+00  Symmetry=eu

 Vector   61  Occ=0.000000D+00  E= 3.523106D+00  Symmetry=a1g

 Vector   62  Occ=0.000000D+00  E= 3.594140D+00  Symmetry=eg

 Vector   63  Occ=0.000000D+00  E= 3.594140D+00  Symmetry=eg

 Vector   64  Occ=0.000000D+00  E= 4.076003D+00  Symmetry=eu

 Vector   65  Occ=0.000000D+00  E= 4.076003D+00  Symmetry=eu

 Vector   66  Occ=0.000000D+00  E= 4.401693D+00  Symmetry=a1g

 Vector   67  Occ=0.000000D+00  E= 4.803738D+00  Symmetry=a2u

 Vector   68  Occ=0.000000D+00  E= 5.021818D+00  Symmetry=a2u

 Vector   69  Occ=0.000000D+00  E= 5.053595D+00  Symmetry=eg

 Vector   70  Occ=0.000000D+00  E= 5.053595D+00  Symmetry=eg

 Vector   71  Occ=0.000000D+00  E= 5.122863D+00  Symmetry=eu

 Vector   72  Occ=0.000000D+00  E= 5.122863D+00  Symmetry=eu

 Vector   73  Occ=0.000000D+00  E= 5.177551D+00  Symmetry=b1g

 Vector   74  Occ=0.000000D+00  E= 5.177551D+00  Symmetry=b2g

 Vector   75  Occ=0.000000D+00  E= 5.700847D+00  Symmetry=a2u

 Vector   76  Occ=0.000000D+00  E= 5.779651D+00  Symmetry=b2u

 Vector   77  Occ=0.000000D+00  E= 5.779651D+00  Symmetry=b1u

 Vector   78  Occ=0.000000D+00  E= 6.129898D+00  Symmetry=eg

 Vector   79  Occ=0.000000D+00  E= 6.129898D+00  Symmetry=eg

 Vector   80  Occ=0.000000D+00  E= 6.255661D+00  Symmetry=b1g

 Vector   81  Occ=0.000000D+00  E= 6.255661D+00  Symmetry=b2g

 Vector   82  Occ=0.000000D+00  E= 6.268229D+00  Symmetry=b1u

 Vector   83  Occ=0.000000D+00  E= 6.268229D+00  Symmetry=b2u

 Vector   84  Occ=0.000000D+00  E= 6.378256D+00  Symmetry=a1g

 Vector   85  Occ=0.000000D+00  E= 6.488007D+00  Symmetry=eu

 Vector   86  Occ=0.000000D+00  E= 6.488007D+00  Symmetry=eu

 Vector   87  Occ=0.000000D+00  E= 6.527401D+00  Symmetry=eg

 Vector   88  Occ=0.000000D+00  E= 6.527401D+00  Symmetry=eg

 Vector   89  Occ=0.000000D+00  E= 6.761820D+00  Symmetry=a2u

 Vector   90  Occ=0.000000D+00  E= 6.956156D+00  Symmetry=eu

 Vector   91  Occ=0.000000D+00  E= 6.956156D+00  Symmetry=eu

 Vector   92  Occ=0.000000D+00  E= 6.961660D+00  Symmetry=a1g

 Vector   93  Occ=0.000000D+00  E= 7.265055D+00  Symmetry=a1g

 Vector   94  Occ=0.000000D+00  E= 7.571755D+00  Symmetry=a2u

 Vector   95  Occ=0.000000D+00  E= 7.693742D+00  Symmetry=eg

 Vector   96  Occ=0.000000D+00  E= 7.693742D+00  Symmetry=eg

 Vector   97  Occ=0.000000D+00  E= 7.822663D+00  Symmetry=eu

 Vector   98  Occ=0.000000D+00  E= 7.822663D+00  Symmetry=eu

 Vector   99  Occ=0.000000D+00  E= 8.268512D+00  Symmetry=a1g

 Vector  100  Occ=0.000000D+00  E= 1.186057D+01  Symmetry=a1g

 Vector  101  Occ=0.000000D+00  E= 1.245392D+01  Symmetry=a2u

 Vector  102  Occ=0.000000D+00  E= 1.603886D+01  Symmetry=a1g

 Vector  103  Occ=0.000000D+00  E= 1.616907D+01  Symmetry=a2u

 Vector  104  Occ=0.000000D+00  E= 1.877258D+01  Symmetry=a1g

 Vector  105  Occ=0.000000D+00  E= 2.263147D+01  Symmetry=a2u

     Multipole analysis of the density
     ---------------------------------

     L   x y z        total         alpha         beta         nuclear
     -   - - -        -----         -----         ----         -------
     0   0 0 0     -0.000000    -11.000000    -11.000000     22.000000

     1   1 0 0      0.000000      0.000000      0.000000      0.000000
     1   0 1 0     -0.000000     -0.000000      0.000000      0.000000
     1   0 0 1     -0.000000     -0.000000     -0.000000      0.000000

     2   2 0 0    -10.958597     -5.479299     -5.479299      0.000000
     2   1 1 0      0.000000      0.000000     -0.000000      0.000000
     2   1 0 1     -0.000000     -0.000000     -0.000000      0.000000
     2   0 2 0    -10.958597     -5.479299     -5.479299      0.000000
     2   0 1 1      0.000000      0.000000      0.000000      0.000000

         Total DFT energy =   -188.662792904933
@    3    -188.66279290 -1.1D-08  0.00001  0.00001  0.00002  0.00003     16.2
@    3    -188.66279290 -1.1D-08  0.00001  0.00001  0.00002  0.00003     16.2

 Output coordinates in angstroms (scale by  1.889725989 to convert to a.u.)

  No.       Tag          Charge          X              Y              Z
 ---- ---------------- ---------- -------------- -------------- --------------
    1 C                    6.0000     0.00000000     0.00000000     0.00000000
    2 O                    8.0000     0.00000000     0.00000000     1.15998776
    3 O                    8.0000     0.00000000     0.00000000    -1.15998776

 Total times  cpu:        9.3s     wall:       16.5s
