 Output coordinates in angstroms (scale by  1.889725989 to convert to a.u.)

  No.       Tag          Charge          X              Y              Z
 ---- ---------------- ---------- -------------- -------------- --------------
    1 C                    6.0000     0.00000000     0.00000000     0.00000000
    2 O                    8.0000     0.00000000     0.00000000     1.15998776
    3 O                    8.0000     0.00000000     0.00000000    -1.15998776

         Total DFT energy =     -188.662792959075

                    DFT Final Alpha Molecular Orbital Analysis
                    ------------------------------------------

 Vector    1  Occ=1.000000D+00  E=-1.921463D+01

 Vector   26  Occ=0.000000D+00  E= 7.130349D-01

 Vector   27  Occ=0.000000D+00  E= 9.275430D-01

 Vector   28  Occ=0.000000D+00  E= 9.388158D-01

 Vector   29  Occ=0.000000D+00  E= 9.743507D-01

 Vector   30  Occ=0.000000D+00  E= 9.743507D-01

 Vector   31  Occ=0.000000D+00  E= 9.752200D-01

 Vector   32  Occ=0.000000D+00  E= 1.087271D+00

 Vector   33  Occ=0.000000D+00  E= 1.376733D+00

 Vector   34  Occ=0.000000D+00  E= 1.376733D+00

 Vector   35  Occ=0.000000D+00  E= 1.527011D+00

 Vector   36  Occ=0.000000D+00  E= 1.527011D+00

 Vector   37  Occ=0.000000D+00  E= 1.649666D+00

 Vector   38  Occ=0.000000D+00  E= 1.649666D+00

 Vector   39  Occ=0.000000D+00  E= 1.861941D+00

 Vector   40  Occ=0.000000D+00  E= 1.930953D+00

 Vector   41  Occ=0.000000D+00  E= 1.930953D+00

 Vector   42  Occ=0.000000D+00  E= 2.107823D+00

 Vector   43  Occ=0.000000D+00  E= 2.107823D+00

 Vector   44  Occ=0.000000D+00  E= 2.135876D+00

 Vector   45  Occ=0.000000D+00  E= 2.431672D+00

 Vector   46  Occ=0.000000D+00  E= 2.492966D+00

 Vector   47  Occ=0.000000D+00  E= 2.572653D+00

 Vector   48  Occ=0.000000D+00  E= 2.572653D+00

 Vector   49  Occ=0.000000D+00  E= 2.580342D+00

 Vector   50  Occ=0.000000D+00  E= 2.712075D+00

 Vector   51  Occ=0.000000D+00  E= 2.820610D+00

 Vector   52  Occ=0.000000D+00  E= 2.820610D+00

 Vector   53  Occ=0.000000D+00  E= 2.876764D+00

 Vector   54  Occ=0.000000D+00  E= 2.876764D+00

 Vector   55  Occ=0.000000D+00  E= 2.900999D+00

 Vector   56  Occ=0.000000D+00  E= 2.900999D+00

 Vector   57  Occ=0.000000D+00  E= 3.081565D+00

 Vector   58  Occ=0.000000D+00  E= 3.081565D+00

 Vector   59  Occ=0.000000D+00  E= 3.463385D+00

 Vector   60  Occ=0.000000D+00  E= 3.463385D+00

 Vector   61  Occ=0.000000D+00  E= 3.523106D+00

 Vector   62  Occ=0.000000D+00  E= 3.594138D+00

 Vector   63  Occ=0.000000D+00  E= 3.594138D+00

 Vector   64  Occ=0.000000D+00  E= 4.076003D+00

 Vector   65  Occ=0.000000D+00  E= 4.076003D+00

 Vector   66  Occ=0.000000D+00  E= 4.401691D+00

 Vector   67  Occ=0.000000D+00  E= 4.803737D+00

 Vector   68  Occ=0.000000D+00  E= 5.021816D+00

 Vector   69  Occ=0.000000D+00  E= 5.053594D+00

 Vector   70  Occ=0.000000D+00  E= 5.053594D+00

 Vector   71  Occ=0.000000D+00  E= 5.122862D+00

 Vector   72  Occ=0.000000D+00  E= 5.122862D+00

 Vector   73  Occ=0.000000D+00  E= 5.177550D+00

 Vector   74  Occ=0.000000D+00  E= 5.177550D+00

 Vector   75  Occ=0.000000D+00  E= 5.700845D+00

 Vector   76  Occ=0.000000D+00  E= 5.779650D+00

 Vector   77  Occ=0.000000D+00  E= 5.779650D+00

 Vector   78  Occ=0.000000D+00  E= 6.129897D+00

 Vector   79  Occ=0.000000D+00  E= 6.129897D+00

 Vector   80  Occ=0.000000D+00  E= 6.255659D+00

 Vector   81  Occ=0.000000D+00  E= 6.255659D+00

 Vector   82  Occ=0.000000D+00  E= 6.268227D+00

 Vector   83  Occ=0.000000D+00  E= 6.268227D+00

 Vector   84  Occ=0.000000D+00  E= 6.378255D+00

 Vector   85  Occ=0.000000D+00  E= 6.488005D+00

 Vector   86  Occ=0.000000D+00  E= 6.488005D+00

 Vector   87  Occ=0.000000D+00  E= 6.527400D+00

 Vector   88  Occ=0.000000D+00  E= 6.527400D+00

 Vector   89  Occ=0.000000D+00  E= 6.761819D+00

 Vector   90  Occ=0.000000D+00  E= 6.956155D+00

 Vector   91  Occ=0.000000D+00  E= 6.956155D+00

 Vector   92  Occ=0.000000D+00  E= 6.961660D+00

 Vector   93  Occ=0.000000D+00  E= 7.265055D+00

 Vector   94  Occ=0.000000D+00  E= 7.571746D+00

 Vector   95  Occ=0.000000D+00  E= 7.693738D+00

 Vector   96  Occ=0.000000D+00  E= 7.693738D+00

 Vector   97  Occ=0.000000D+00  E= 7.822662D+00

 Vector   98  Occ=0.000000D+00  E= 7.822662D+00

 Vector   99  Occ=0.000000D+00  E= 8.268516D+00

 Vector  100  Occ=0.000000D+00  E= 1.186059D+01

 Vector  101  Occ=0.000000D+00  E= 1.245392D+01

 Vector  102  Occ=0.000000D+00  E= 1.603889D+01

 Vector  103  Occ=0.000000D+00  E= 1.616905D+01

 Vector  104  Occ=0.000000D+00  E= 1.877259D+01

 Vector  105  Occ=0.000000D+00  E= 2.263140D+01

     Multipole analysis of the density
     ---------------------------------

     L   x y z        total         alpha         beta         nuclear
     -   - - -        -----         -----         ----         -------
     0   0 0 0     -0.000000    -11.000000    -11.000000     22.000000

     1   1 0 0     -0.000000     -0.000000     -0.000000      0.000000
     1   0 1 0     -0.000000     -0.000000     -0.000000      0.000000
     1   0 0 1      0.000000      0.000000      0.000000      0.000000

     2   2 0 0    -10.958581     -5.479290     -5.479290      0.000000
     2   1 1 0     -0.000000     -0.000000     -0.000000      0.000000
     2   1 0 1     -0.000000     -0.000000     -0.000000      0.000000
     2   0 2 0    -10.958581     -5.479290     -5.479290      0.000000
     2   0 1 1     -0.000000     -0.000000     -0.000000      0.000000

 Zero-Point correction to Energy  =    7.345 kcal/mol  (  0.011705 au)
 Thermal correction to Energy     =    8.985 kcal/mol  (  0.014318 au)
 Thermal correction to Enthalpy   =    9.577 kcal/mol  (  0.015262 au)
 Total Entropy                    =   51.012 cal/mol-K
   - Translational                =   37.253 cal/mol-K (mol. weight =  43.9898)
   - Rotational                   =   13.066 cal/mol-K (symmetry #  =        2)
   - Vibrational                  =    0.692 cal/mol-K
   - Translational                  =    2.979 cal/mol-K
   - Rotational                     =    1.986 cal/mol-K
   - Vibrational                    =    1.870 cal/mol-K
 P.Frequency       -0.00       -0.00        0.00        0.00        0.00      675.88
 P.Frequency      675.88     1372.50     2415.92

 Normal Eigenvalue ||           Projected Infra Red Intensities
  Mode   [cm**-1]  || [atomic units] [(debye/angs)**2] [(KM/mol)] [arbitrary]
 ------ ---------- || -------------- ----------------- ---------- -----------
    1       -0.000 ||    0.000000           0.000         0.000       0.000
    2       -0.000 ||    0.000000           0.000         0.000       0.000
    3        0.000 ||    0.000000           0.000         0.000       0.000
    4        0.000 ||    0.000000           0.000         0.000       0.000
    5        0.000 ||    0.000000           0.000         0.000       0.000
    6      675.881 ||    0.033024           0.762        32.194       4.164
    7      675.881 ||    0.033024           0.762        32.194       4.164
    8     1372.495 ||    0.000000           0.000         0.000       0.000
    9     2415.919 ||    0.647817          14.946       631.524      81.673
 ----------------------------------------------------------------------------

 Total times  cpu:       58.0s     wall:      143.8s
